216
Lattice="37.874764 0.0 0.0 0.0 25.0 0.0 0.0 0.0 21.3" Properties=species:S:1:pos:R:3:initial_magmoms:R:1:QM_forces:R:3 config_type=0.30-0.50-0.30 QM_energy=-40937.21309654 pbc="T T T"
H       10.35230924      11.40062500       0.55970010       0.00000000       0.34903000      -0.40832000      -0.34255000
H       10.83339450      10.53975000       2.12094750       0.00000000       2.17671000       1.44957000      -0.63550000
H       10.38609353      10.74500000       6.33777240       0.00000000       0.55684000      -0.24010000       1.20439000
H       10.47752321      10.60032500       8.91321930       0.00000000      -0.33435000       0.63411000       0.16237000
H        9.64628577      12.48862500      10.72295250       0.00000000       1.10855000      -0.49434000       0.56183000
H        9.55356835      12.05295000      12.93855720       0.00000000       1.02275000       1.01658000       0.13316000
H        9.55928744      12.32345000      17.77917390       0.00000000      -1.02841000      -0.33596000       0.20395000
H        9.91394673      12.24795000      19.56034380       0.00000000      -1.41704000      -0.44509000      -0.14547000
H       26.97910339      12.18542500       0.85849650       0.00000000      -0.11250000      -0.09008000       0.81560000
H       27.34099676      13.37937500       3.04762530       0.00000000       0.76972000      -0.00212000      -0.26785000
H       27.58680398      13.34482500      11.27085240       0.00000000       0.92803000      -0.13664000       0.51026000
H       27.08174400      14.66917500      15.11652480       0.00000000       2.76448000       2.20753000      -0.13306000
H       26.50926694      13.47750000      16.91920770       0.00000000      -1.17405000      -1.39861000      -2.06385000
H       26.57819901      11.05485000      19.85174910       0.00000000       1.62463000      -0.89622000       2.11932000
H        9.38631339       8.73177500       3.75201630       0.00000000      -0.31444000      -0.57068000       0.07579000
H       20.81691716       4.36895000       7.41259170       0.00000000      -2.09163000      -0.38868000      -1.10446000
H       27.86105515      15.88922500       8.61384780       0.00000000      -2.07483000       0.30579000       1.79256000
H        8.71960392      11.61110000      15.51922260       0.00000000      -2.21703000      -0.17899000       1.20579000
H       28.12254252      15.80897500       4.77032670       0.00000000       3.81812000       2.29494000       3.14848000
H       28.01013022      11.34827500      16.66122210       0.00000000      -0.93366000       1.05272000      -0.99404000
H       12.45674476      15.25800000      12.46657050       0.00000000       0.24273000      -0.60928000       0.05223000
H       22.59089536      11.22747500      12.95691780       0.00000000      -1.65439000      -0.90181000      -0.00269000
H       21.16589524      16.40547500      11.04571140       0.00000000       1.91749000      -2.51761000       1.97905000
H       21.57774542      11.59652500       1.58135460       0.00000000      -0.99701000      -0.24458000      -0.94755000
H       16.72189768      11.32262500       7.85495010       0.00000000      -2.40769000       1.32446000       1.21364000
H       21.55574018       3.53560000       7.91629410       0.00000000       2.24803000      -2.03386000       1.47188000
H       15.20152890      15.77327500       7.88702790       0.00000000       1.95845000       2.88035000       0.55720000
H       19.75896138      10.29390000      17.58089220       0.00000000      -0.64158000       0.51102000      -0.49783000
H       19.01574489      12.21962500       7.38694650       0.00000000       2.41487000      -1.55206000      -2.33594000
H       13.46652384      15.29187500      15.07081500       0.00000000      -1.06715000      -1.42570000       0.47886000
H       13.97968902      10.44310000      13.70738070       0.00000000       0.44729000      -0.49128000       0.50087000
H       25.19433089      16.63175000       4.92021480       0.00000000      -1.65560000       0.62970000       0.76815000
C       25.40264209      13.26352500       0.27615450       0.00000000      -1.20169000       0.50782000      -1.68513000
C       26.15146405      12.75142500       1.33913100       0.00000000       2.23848000       1.14603000      -1.97199000
C       26.39859688      13.44247500       2.53331550       0.00000000      -1.15725000      -1.68461000       0.53507000
C       25.30681894      13.80692500       3.32823150       0.00000000      -1.73392000      -1.35770000       0.68777000
C       25.35567738      14.46605000       4.59423960       0.00000000      -1.43527000      -1.15355000      -5.33107000
C       26.64588122      14.84017500       4.93248360       0.00000000       1.56960000       1.67232000       3.37930000
C       26.77635978      14.84420000       6.32899680       0.00000000      -0.61546000       0.58073000       1.95228000
C       25.41430752      14.42542500       7.31980890       0.00000000       0.39246000       2.41924000      -2.78766000
C       25.40786881      14.08272500       8.67649110       0.00000000       1.57775000       0.22049000       0.59259000
C       26.73943188      13.44887500       9.30264720       0.00000000      -3.26501000       0.25017000      -1.28299000
C       26.66883332      13.46942500      10.74881070       0.00000000       0.91892000      -0.13627000      -0.98083000
C       25.57656301      13.73632500      11.48259570       0.00000000      -0.97366000       0.51114000      -1.62959000
C       25.40938380      13.95925000      13.85447850       0.00000000      -3.17513000      -2.38037000       3.89627000
C       26.23653077      14.15655000      14.92552770       0.00000000      -3.92192000      -3.80008000       2.48110000
C       25.92334435      13.18320000      15.91389030       0.00000000       1.44545000       1.58779000       1.90226000
C       24.94246371      12.06435000      15.92975880       0.00000000       2.76762000       2.62498000       0.66790000
C       24.88209133      11.48480000      17.19310440       0.00000000       2.13771000       0.63390000       0.66846000
C       26.02075824      11.45727500      18.08225160       0.00000000       0.21499000       1.22214000      -1.49921000
C       26.06806382      11.88162500      19.47216180       0.00000000      -0.08680000      -1.07635000      -2.22380000
C       25.58470608      12.95280000      20.13704130       0.00000000      -2.60773000       1.84573000       1.49977000
C       22.84942850      13.29037500       0.06019380       0.00000000      -0.54571000       2.00195000       1.12681000
C       24.12054345      14.20690000       0.42267720       0.00000000      -0.88139000      -0.42415000       0.76003000
C       23.97601335      13.08695000       2.96534340       0.00000000      -1.90214000       4.12731000       0.24350000
C       22.78310979      14.08157500       3.24658860       0.00000000       1.02053000       0.19219000       0.59846000
C       22.91559571      15.00007500       4.34686140       0.00000000      -0.53142000      -3.50664000      -1.57696000
C       24.09785647      15.04010000       5.16595290       0.00000000       2.44816000       1.64906000       3.41192000
C       24.13228463      14.81937500       6.72100200       0.00000000       2.44191000      -2.39323000      -1.18433000
C       22.96312854      14.69572500       7.42132470       0.00000000      -1.77197000       1.08396000       1.11575000
C       22.95585659      14.31417500       8.83952130       0.00000000      -0.25200000       1.81665000      -0.47387000
C       24.23140289      14.23417500       9.47756280       0.00000000      -0.79969000      -2.05082000      -2.54729000
C       24.19580061      13.78090000      10.81675770       0.00000000       0.79300000      -0.08601000       5.49238000
C       22.91711070      13.84580000      11.68262400       0.00000000       0.48286000      -1.13511000       1.83094000
C       22.84586827      13.51342500      13.19775690       0.00000000      -0.77292000       1.80866000       2.07530000
C       23.96597654      13.35242500      14.18592780       0.00000000      -0.43889000       1.18693000      -2.10012000
C       23.80849327      12.14557500      15.07130490       0.00000000       2.07478000      -0.80013000      -1.47223000
C       22.49624632      11.92610000      15.78425850       0.00000000       2.41982000       0.79236000      -0.57305000
C       22.39307547      11.69805000      17.09650890       0.00000000       3.62293000      -3.12945000       1.69870000
C       23.62934564      11.01027500      17.65878630       0.00000000      -1.34168000       0.00689000       0.64286000
C       24.79960010      14.09077500      19.37137020       0.00000000       0.90618000      -0.97190000      -0.67999000
C       22.68857438      12.90220000      20.05384350       0.00000000      -0.38784000       1.95500000      -0.37385000
C       20.40885446      14.08367500       0.12997260       0.00000000      -0.38155000      -2.28327000      -1.97270000
C       21.51597168      13.47642500       0.97189770       0.00000000       0.23342000      -1.60997000      -0.45195000
C       21.61918041      14.14300000       2.45648640       0.00000000      -0.95362000      -0.63669000      -1.68877000
C       20.44987283      14.87972500       2.92840920       0.00000000       2.20733000      -1.54593000      -1.75259000
C       20.65700991      15.64015000       4.10365800       0.00000000      -3.84172000      -1.56207000      -4.35467000
C       21.78310239      15.62997500       4.79313900       0.00000000       1.84790000      -0.49794000      -2.75615000
C       21.74946960      15.21987500       6.81727800       0.00000000      -2.30410000      -0.17311000       2.27384000
C       20.47335518      14.86360000       7.35333510       0.00000000      -0.45096000      -2.05522000       0.81264000
C       20.53819678      14.37680000       8.79713430       0.00000000      -1.45308000       1.97231000      -1.66141000
C       21.69784630      14.37732500       9.55526520       0.00000000       0.17280000      -0.91096000      -1.29269000
C       21.61342345      14.41562500      11.04351750       0.00000000       0.73524000      -1.51217000       0.64163000
C       20.32518910      13.91192500      11.66701110       0.00000000      -0.57548000       0.61848000      -2.89680000
C       20.31814440      13.27960000      12.86892750       0.00000000      -0.15874000      -0.23485000       2.31982000
C       21.51188121      12.69797500      13.59589650       0.00000000       1.14387000      -0.17992000      -0.03057000
C       21.47536994      12.61572500      15.26379300       0.00000000      -5.05813000       1.16437000      -6.01769000
C       20.22004876      12.78705000      15.81448320       0.00000000       4.19294000       0.21262000      -2.60863000
C       20.01851714      12.26995000      17.09160990       0.00000000      -3.15253000      -0.48600000       3.99160000
C       21.23528181      11.89747500      17.84797290       0.00000000      -1.19800000       2.39133000       3.02509000
C       21.36019278      12.57697500      19.36240290       0.00000000       0.78971000       0.80080000       2.14862000
C       20.30719859      13.46965000      20.06649570       0.00000000       1.22010000      -0.52068000      -0.35819000
C       17.98267282      14.44425000       0.14034570       0.00000000      -1.30412000      -1.37842000      -1.36544000
C       19.17576576      14.39022500       0.81585390       0.00000000       2.22921000       0.40515000      -1.64791000
C       19.18940068      14.63362500       2.17019310       0.00000000       0.28351000       0.83496000       3.51304000
C       17.98183958      14.48817500       2.83788420       0.00000000      -0.96769000      -0.54024000       2.66453000
C       17.95722098      14.19452500       4.48126440       0.00000000       1.92807000       0.81720000      -2.22015000
C       18.96381859      15.07227500       5.29353990       0.00000000      -2.57983000      -1.64967000      -0.63772000
C       19.09206254      14.55942500       6.56855790       0.00000000       3.55273000       1.74234000       2.20364000
C       18.00721567      13.74685000       7.47700290       0.00000000       1.87990000       1.42883000      -0.27636000
C       17.81492549      14.58340000       8.72332980       0.00000000       0.53284000       0.16198000       1.98005000
C       19.20780781      14.56765000       9.46978830       0.00000000      -2.40968000       0.72554000       2.40527000
C       19.08963855      14.25487500      10.99638060       0.00000000       2.01648000      -2.06509000      -2.11073000
C       17.94517681      13.59455000      11.49220200       0.00000000      -3.15527000       1.90627000      -2.90589000
C       17.79295813      13.35352500      12.78681600       0.00000000       5.47465000      -1.11549000       4.73209000
C       19.10611407      13.29790000      13.52854590       0.00000000      -1.59597000      -1.31728000       0.60398000
C       19.18205298      13.31045000      15.03901410       0.00000000      -2.29730000       1.57233000      -1.70951000
C       17.92714842      13.57502500      15.76796400       0.00000000      -1.02243000      -1.08272000      -6.27871000
C       17.77591449      13.51292500      17.15003580       0.00000000       5.76149000      -0.28774000       1.41761000
C       19.02797844      13.32470000      17.89410870       0.00000000      -1.37226000      -3.63283000      -2.37487000
C       19.19500614      13.49970000      19.24744680       0.00000000      -1.99869000       3.32902000       2.94449000
C       18.09580474      14.33160000      19.95273240       0.00000000      -0.48955000      -1.59295000      -1.38129000
C       15.51198834      14.22080000      21.20698290       0.00000000      -0.29336000      -0.46217000       3.34340000
C       16.72992713      14.24372500       0.81125310       0.00000000       0.04270000       1.31014000      -5.34993000
C       16.77621009      14.13947500       2.15660370       0.00000000      -0.62366000       0.36854000       4.88005000
C       15.60016079      13.86302500       3.01367310       0.00000000       0.88735000      -0.64571000      -0.28278000
C       15.61799981      13.45427500       4.46313810       0.00000000      -0.57416000       1.70962000      -2.79035000
C       16.87794171      13.53837500       5.34218910       0.00000000      -1.39739000       0.14526000      -4.60437000
C       16.85298224      13.44910000       6.74055540       0.00000000      -0.64197000       0.42992000      -2.35618000
C       15.64504239      13.04835000       7.34526240       0.00000000      -1.74866000      -3.02395000       2.12024000
C       15.14358051      13.94087500       8.49090420       0.00000000       4.72184000       3.91004000      -2.72886000
C       16.32981812      14.42420000       9.40855080       0.00000000       3.48037000      -2.53533000      -0.01783000
C       16.53907619      13.75100000      10.85381970       0.00000000       2.82286000       0.25062000      -2.80784000
C       15.30125316      13.35980000      11.36380560       0.00000000      -0.19749000      -4.69855000       3.39234000
C       15.43139085      12.84962500      12.69863400       0.00000000      -1.07110000      -0.03424000       0.68557000
C       16.68341692      13.02275000      13.59018810       0.00000000      -2.13242000       0.04347000      -5.69478000
C       16.74886451      13.05422500      14.89053180       0.00000000      -1.75588000       1.77393000       4.85174000
C       15.42260390      12.94295000      15.62029110       0.00000000      -0.96812000       0.09512000       1.18192000
C       15.27689968      13.70042500      16.97946540       0.00000000       1.24113000      -0.34459000      -1.63211000
C       16.65307923      14.10882500      17.62773090       0.00000000      -2.21350000      -1.16615000       3.52132000
C       16.80219218      14.40195000      19.15992510       0.00000000      -2.78275000      -0.36175000      -2.01948000
C       15.48937711      14.28487500      19.86768150       0.00000000      -1.16390000      -0.82011000      -1.27939000
C       13.04228861      13.39637500       0.03033120       0.00000000       0.46098000       0.12270000      -1.86911000
C       14.20871771      14.02627500       0.65348400       0.00000000       1.66290000       1.01451000       0.47546000
C       14.35908053      13.88160000       2.14405800       0.00000000      -1.33495000      -0.51272000       3.44854000
C       13.22219374      13.07950000       2.87652240       0.00000000      -0.62436000       0.58397000       0.96076000
C       13.28612634      12.60167500       4.33026870       0.00000000      -1.37796000      -0.43123000      -3.68576000
C       14.35745191      13.07195000       5.03732220       0.00000000       2.65574000      -1.24089000       2.94010000
C       14.42221776      12.72857500       6.45867120       0.00000000       2.19643000       2.37522000      -2.17921000
C       13.22518584      12.41905000       6.98220390       0.00000000      -0.74329000      -0.96136000       1.33656000
C       13.04437172      12.61612500       8.39516070       0.00000000       5.39926000       3.73017000      -2.30410000
C       14.08740485      13.39640000       9.12613410       0.00000000      -3.71534000      -4.02091000       1.63734000
C       14.14550473      13.13907500      10.45934370       0.00000000      -0.80023000       1.13968000       2.21518000
C       12.86473171      12.95262500      11.08805580       0.00000000       3.10572000      -0.71300000       1.05961000
C       13.00384572      13.29457500      12.50128950       0.00000000      -2.54939000      -0.40421000       6.08241000
C       14.13115020      12.38185000      13.37625090       0.00000000      -1.37169000       1.47073000      -1.35185000
C       14.06354374      12.66180000      14.92657140       0.00000000       1.79217000      -0.39102000      -0.23165000
C       12.74595645      13.10905000      15.53924460       0.00000000       2.38826000       3.54388000       3.55113000
C       12.77939987      13.18807500      17.23187040       0.00000000       1.47629000      -0.53323000      -4.19007000
C       14.08047376      13.48730000      17.80170930       0.00000000      -1.45607000       1.01593000      -1.10534000
C       14.14315650      13.79152500      19.16936100       0.00000000       3.98902000       0.51789000      -0.34755000
C       13.10372147      13.27325000      19.85662680       0.00000000      -1.71509000       0.83018000       2.26546000
C       11.17521424      11.82405000      21.26966880       0.00000000      -3.13630000       0.43459000      -0.92673000
C       12.21820949      12.37355000       0.67182330       0.00000000       0.90186000       3.02277000       0.96969000
C       12.27051454      12.33677500       2.05787820       0.00000000       0.92525000      -1.05475000      -0.74100000
C       11.69561350      11.19532500       2.56123980       0.00000000      -3.35549000      -2.03506000       1.31968000
C       11.68921266      10.80365000       3.88471530       0.00000000       0.47571000      -0.14819000      -1.63894000
C       12.31933511      11.62102500       4.80651540       0.00000000       3.20152000       2.43848000       0.71057000
C       12.24839568      11.72590000       6.19527540       0.00000000      -1.04129000      -0.36844000       2.60500000
C       11.20430206      11.16672500       6.98352450       0.00000000      -1.13651000      -0.14376000      -0.43689000
C       11.13139314      11.30267500       8.38862160       0.00000000      -0.93395000      -1.86331000      -3.14514000
C       12.04307658      12.11987500       9.01605570       0.00000000      -5.63065000      -1.64141000       5.66793000
C       11.77810473      12.42457500      10.47727830       0.00000000       2.41711000       0.98394000      -1.96572000
C       10.65284550      12.47670000      11.26356780       0.00000000      -3.74304000      -0.78947000      -1.68918000
C       10.56736215      12.45407500      12.62152800       0.00000000      -3.28621000      -1.13123000      -0.12227000
C       11.55793873      12.73005000      13.50420000       0.00000000       2.04755000       1.00590000      -0.81720000
C       11.50214920      12.75905000      14.89621890       0.00000000       1.06635000       0.37273000       0.95392000
C       10.42646803      12.51400000      15.86443170       0.00000000      -0.20670000      -2.23480000      -3.59896000
C       10.38143494      12.67620000      17.21078340       0.00000000      -0.12658000       0.09956000      -0.87984000
C       11.53112340      13.04445000      17.87734560       0.00000000       4.86729000       0.76271000       1.56710000
C       11.86461070      12.97352500      19.28847060       0.00000000      -2.19449000      -0.60919000      -1.23026000
C       10.83775009      12.36485000      20.04289530       0.00000000       2.18090000      -0.56242000       1.48058000
C       11.05087139       9.51825000       4.03364490       0.00000000      -2.59189000      -2.44850000       5.79388000
C       28.11250570      15.42767500       6.79227180       0.00000000       2.42933000      -3.85612000      -1.03673000
C       27.38943858      11.06357500      17.50619310       0.00000000       2.21357000      -4.79781000       4.05086000
O       11.18017584       8.62572500       4.96822500       0.00000000       0.90152000       2.47607000      -3.21749000
O        9.78752076       9.56140000       3.44655300       0.00000000       0.62898000      -0.00137000      -0.94002000
O       27.52446212      12.92475000       8.51974440       0.00000000       0.61744000       0.15680000       0.81439000
O       29.15519796      15.14402500       6.13111980       0.00000000      -1.74523000       0.91441000      -1.11244000
O       28.52575725      15.86250000       7.95576300       0.00000000       0.27654000       1.19067000       1.01199000
O        9.57375560      11.65467500      15.13880460       0.00000000       1.21298000       0.95031000       0.03452000
O       27.68277863      15.37307500       4.11492570       0.00000000      -5.39760000      -3.34662000      -3.10182000
O       28.08557675      10.13250000      18.14568300       0.00000000      -2.75493000       3.30905000      -1.67412000
O       23.62783065      10.08252500      18.45263730       0.00000000      -0.81951000      -0.76987000       0.95067000
O       23.70513304      12.07355000       2.35113660       0.00000000       0.83087000      -0.97640000       0.33592000
O       13.22954144      14.57455000       2.78237640       0.00000000       0.42304000      -1.37149000       0.21107000
O       13.10928907      14.92912500       0.33698730       0.00000000       0.07274000      -1.72921000       0.07307000
O       18.67169053      14.78267500      15.15948690       0.00000000      -0.24175000      -1.12578000       1.76422000
O       24.67294689      11.23847500      14.23189320       0.00000000      -1.11619000      -0.22096000       1.39138000
O       15.93592058      14.99392500      16.83477450       0.00000000      -1.05892000       1.19323000       0.12264000
O       20.94425212      11.28267500      19.15660230       0.00000000       0.39288000      -1.31041000      -0.96691000
O       17.99100527      12.73030000       4.46100810       0.00000000       0.41269000       0.92598000       1.69030000
O       19.52133511      16.24892500       4.57705050       0.00000000      -1.21030000      -1.68659000       2.73244000
O       14.90546187      11.62915000      15.74121120       0.00000000      -1.73272000      -0.11317000      -1.16223000
O       25.96561258      14.03712500      12.75855090       0.00000000       1.10041000       0.89504000      -4.57874000
O       25.32136285      15.11765000      18.95934300       0.00000000      -1.78154000      -1.73790000       0.38179000
O       16.27005175      15.07400000      10.63924350       0.00000000      -0.86644000       5.20934000      -1.37274000
O       21.71602619      16.28715000       5.88864060       0.00000000       1.06919000       1.35244000       5.02944000
O       18.48905842      15.85495000       9.03215850       0.00000000      -0.10385000      -1.75906000      -0.81468000
O       23.39376461      13.66267500      19.09474710       0.00000000       2.52686000       0.52203000      -0.30836000
O       23.43660097      12.56077500      11.44299900       0.00000000       0.34746000      -1.43912000      -4.26865000
O       17.71698135      15.45865000      19.17730590       0.00000000      -0.04156000       2.60189000       1.00702000
O       13.21954250      14.71305000      12.77608080       0.00000000       0.03661000      -0.86602000      -0.57207000
O       21.57240508      11.24302500      13.06765650       0.00000000       2.28088000       2.35333000       0.84088000
O       21.74890148      15.67795000      11.61604020       0.00000000      -1.60855000       5.34847000      -1.79106000
O       23.99392812      15.35910000       0.87773040       0.00000000       0.58576000      -2.25347000      -0.85084000
O       20.90755147      11.93927500       0.90081960       0.00000000       2.21343000       1.63741000       2.26327000
O       15.82892437      11.76280000       8.23504860       0.00000000       2.48123000      -1.00292000      -2.21246000
O       20.72715397       3.36825000       7.48158240       0.00000000      -0.17220000       2.43215000      -0.36897000
O       14.64117177      15.06647500       7.71515820       0.00000000      -2.36796000      -1.29731000      -0.57698000
O       19.26961943      10.89755000      16.95431010       0.00000000       0.75947000       0.99798000       0.37668000
O       18.46550032      12.29077500       8.12727060       0.00000000      -1.22418000       2.20959000       0.90281000
O       12.71330841      14.81340000      15.56410170       0.00000000       0.76998000      -0.25939000      -0.78631000
O       13.59647215      11.05632500      13.07087280       0.00000000       0.75092000       0.96397000      -0.23185000
O       23.09981856      14.45570000      14.36731860       0.00000000      -0.91751000       0.87195000      -0.65606000
O       24.26329344      16.55497500       5.33611860       0.00000000       2.67392000       0.32414000      -1.67725000
191
Lattice="17.216585 0.0 0.0 0.0 20.0 0.0 0.0 0.0 21.3" Properties=species:S:1:pos:R:3:initial_magmoms:R:1:QM_forces:R:3 config_type=0.30-0.50 QM_energy=-38843.84203897 pbc="T T T"
H        3.17812994       7.65606000      20.58449040       0.00000000       1.21127000       0.02715000      -0.77615000
H        6.32390992      13.29396000      11.80835790       0.00000000      -0.54662000      -1.83057000      -0.42968000
H       12.67137213      13.73902000      19.63557540       0.00000000       1.03757000       0.57330000       0.43417000
H       11.61220782      13.86652000      17.49492540       0.00000000       0.71605000       0.23178000      -0.38814000
H       10.67956819      12.33216000       4.05946050       0.00000000      -0.00661000      -2.52182000      -0.78588000
H        1.39922630       7.94298000      16.77257850       0.00000000      -2.59861000       2.78380000      -0.67687000
H        1.86708699       7.72656000      10.03666650       0.00000000      -0.88587000      -1.34418000       2.21529000
H       15.43678609      12.18718000      21.24807060       0.00000000      -0.37690000      -0.27759000      -0.01542000
H        3.68474517      11.89092000      20.36043570       0.00000000       1.13538000      -0.10828000      -1.28296000
H       14.97603584      12.37216000       5.67791970       0.00000000      -3.84394000       0.29884000       0.61687000
H       13.16318109       8.35832000      20.66129820       0.00000000       0.74261000      -0.27427000       0.40094000
H       15.59970664       8.04658000      19.54390020       0.00000000       0.49499000       2.91630000      -0.36039000
H        7.58140929       9.77426000      14.31805170       0.00000000       0.38970000      -1.44782000      -0.13842000
C       13.52228462      11.20994000      20.79938610       0.00000000       1.07196000       0.02604000      -1.69468000
C       15.11474987       9.45934000       0.13706550       0.00000000       1.94891000      -2.58963000      -2.22146000
C       15.00292815       9.64492000       1.57198260       0.00000000       1.43340000      -1.61606000      -0.06380000
C       13.88572673       9.92620000       2.20244130       0.00000000      -5.43797000      -0.63860000      -3.84048000
C       13.79781885      10.05280000       3.52261530       0.00000000      -1.47857000       0.35844000       5.55743000
C       14.92807044      10.11814000       4.36454040       0.00000000       0.63244000      -0.23959000       0.59074000
C       14.92652095      10.24798000       5.72060490       0.00000000       0.44428000       1.95460000       1.48537000
C       13.65471460      10.91174000       6.31359690       0.00000000       3.66454000       0.60759000      -1.26066000
C       13.63551810      10.67758000       7.79635380       0.00000000       2.24088000      -1.39274000      -0.44397000
C       14.88888549      10.28040000       8.56605060       0.00000000      -2.67027000       0.87019000       0.24613000
C       14.79013116      10.80558000      10.03636830       0.00000000       4.15642000      -4.39834000      -2.94010000
C       13.74790797      11.49360000      10.39725420       0.00000000      -2.94399000       1.80385000       3.64117000
C       13.55874935      12.32578000      11.60193960       0.00000000       5.07373000       1.80149000       3.50878000