245
Lattice="17.216585 0.0 0.0 0.0 20.0 0.0 0.0 0.0 21.3" Properties=species:S:1:pos:R:3:initial_magmoms:R:1:QM_forces:R:3:MACE_forces:R:3 config_type=0.50-0.50 QM_energy=-53101.09703567 MACE_energy=-53101.1328125 pbc="T T T"
H       15.70381533      11.96752000      21.17720550       0.00000000      -1.33080000       0.36284000      -0.73570000      -1.23670101       0.27761066      -0.63403028
H        9.76726135       8.02322000       5.14096800       0.00000000       1.40534000      -0.01197000       0.01339000       1.07593381      -0.29604837      -0.11966419
H       13.21278208      11.99448000      13.12861710       0.00000000      -0.79537000       0.57856000       0.03165000      -0.86350572       0.54798549      -0.06294090
H        3.09171990      12.05064000       7.85188290       0.00000000       0.32272000      -0.45167000      -0.46389000       0.27201933      -0.35167500      -0.33038321
H       11.17790224       8.16334000       1.18168140       0.00000000       0.22388000      -0.80548000      -0.23293000       0.31003660      -0.93503600      -0.17190382
H       12.78312498      11.83384000       9.34937940       0.00000000      -0.35660000       0.29749000      -0.75793000      -0.17161286       0.37884936      -0.74132586
H        9.35106763      12.01050000       7.84766550       0.00000000      -0.87911000       0.41113000       0.99659000      -0.86299080       0.42458534       0.90459025
H        0.69451704      12.06280000       4.26519720       0.00000000      -0.03045000      -0.83881000       0.07879000      -0.05790755      -0.85320872      -0.03595436
H        3.99324916       7.95742000       8.67233760       0.00000000      -0.38835000      -0.79885000       0.11569000      -0.28133336      -0.74024671      -0.03071261
H       14.22115746      12.15942000       5.57687250       0.00000000      -0.26033000      -0.87459000      -0.23191000      -0.25431585      -0.80051190      -0.21519563
H       14.76726753       8.19362000      18.94511460       0.00000000      -0.50108000      -0.42036000      -0.51062000      -0.43027773      -0.54034621      -0.29985929
H       10.50554295      11.90934000      18.49502430       0.00000000      -1.27186000       1.15277000       1.44094000      -1.21769786       1.03388870       1.47802901
H       16.70542459      12.04240000       8.67465930       0.00000000       0.39479000      -0.17496000       1.45117000       0.41410655      -0.15664345       1.40025020
H       12.75581948      11.84884000      18.56047920       0.00000000       1.70703000       0.30616000       1.28972000       1.60856295       0.31043389       1.33728373
H       14.33031061       8.00382000      17.27934810       0.00000000       1.61096000      -0.57701000      -1.50507000       1.70837736      -0.60387468      -1.64935064
H       11.44999315      12.04378000      15.26187600       0.00000000       0.24948000       0.70114000       0.88857000       0.24412112       0.21662092       0.28951246
H        1.70940029       8.34422000       7.64418660       0.00000000      -1.52446000      -1.39894000       1.73315000      -1.98147047      -1.87912917       2.07263780
H        8.02292861       7.77974000      11.34499770       0.00000000      -0.38219000       0.33005000       0.41750000      -0.31334215       0.33829042       0.45007509
H        5.32324757      11.93784000      10.18195380       0.00000000      -0.96463000       0.24019000      -0.42269000      -1.02230167       0.30147335      -0.45271668
H        0.70515689       7.77144000       4.81414080       0.00000000       0.79509000      -0.04891000      -0.60924000       0.94789618       0.02197883      -0.76636207
H        6.73703909      12.21302000       5.73419430       0.00000000       0.29880000      -0.16914000      -0.26835000       0.36073267      -0.20672715      -0.20826679
H        9.32713657       7.88646000      16.31083710       0.00000000      -1.37970000      -0.34362000      -1.17225000      -1.33805406      -0.38761067      -1.16436625
H       13.11748828       7.85932000      15.72928320       0.00000000      -0.27579000       0.43822000      -0.21665000      -0.26843581       0.34946147      -0.22803637
H        4.30226964       7.94036000      12.79629450       0.00000000      -1.08953000       0.71319000      -0.02981000      -0.89300704       0.83280998       0.06039977
H        4.93565059      11.91308000       5.17349310       0.00000000      -0.21492000       0.51685000       0.35617000      -0.17323214       0.50906801       0.58841747
H        7.71628401       8.03528000      14.75442480       0.00000000      -0.42470000      -0.36810000       0.54277000      -0.49650523      -0.39054945       0.43656340
H       16.36012876      12.04696000       7.44405180       0.00000000      -0.78932000      -0.45478000      -1.26359000      -0.64666176      -0.55144095      -1.27878463
H       15.59956890       8.00154000       4.68301800       0.00000000       0.19119000      -0.82246000      -0.22316000       0.33661026      -1.08650553      -0.02998611
H        0.34922121       7.84554000       9.00702450       0.00000000       0.18702000       0.69161000       0.32967000       0.27561206       0.71069866       0.20533916
H       13.89727906       8.00732000       7.21441650       0.00000000       1.08395000      -0.53079000       2.12679000       1.13267434      -0.52837980       2.11185312
H       10.42223190       8.06520000       7.08770280       0.00000000       0.15958000      -0.26527000       0.63471000       0.18573815      -0.20632263       0.81391186
H        5.69972263       8.15520000      11.92661550       0.00000000       0.83515000      -0.76268000      -0.14802000       1.06138563      -0.87384814      -0.21411768
H        5.38551995       7.90872000       4.45223250       0.00000000       0.43598000       0.65279000       0.65294000       0.47327104       0.55824614       0.67554837
H        8.20217048      11.92792000       3.28054080       0.00000000       1.02679000       0.22350000       0.29919000       1.02957666       0.05690041       0.34936875
H       16.70965987       7.89950000       5.81413320       0.00000000      -0.15936000       0.48570000       0.56224000      -0.06597830       0.46742561       0.53851455
C       14.76700929      10.25724000       0.01295040       0.00000000      -0.38687000       2.22246000      -1.51662000      -0.03650513       2.10375547      -1.33658910
C       16.01729491      10.09532000       0.70530690       0.00000000      -0.69392000      -1.42906000       2.32161000      -1.19930363      -1.47962236       2.42261171
C       16.01841398       9.89534000       2.12060670       0.00000000      -1.19446000      -0.34589000       2.40199000      -1.19228351      -0.51363516       2.69330072
C       14.76792177       9.99074000       2.83068480       0.00000000       1.30338000      -2.08166000      -0.42017000       1.49592042      -2.24187303      -0.31071562
C       14.76191318       9.63174000       4.22549400       0.00000000      -0.01322000       0.85734000       1.85345000      -0.20445129       1.10072398       1.99045563
C       15.97557912       9.97974000       4.97627640       0.00000000       0.89177000       2.20871000      -0.87869000       0.72912872       2.07580161      -0.80911362
C       15.96867527       9.70176000       6.41930880       0.00000000       0.33478000      -0.53617000      -2.06603000       0.61623853      -0.62059259      -1.96096325
C       14.75256457      10.12136000       7.07151480       0.00000000       0.21031000       1.26173000       3.53339000       0.33532709       1.27887511       3.66325474
C       14.74617722      10.25222000       8.49697470       0.00000000      -3.39888000      -5.23351000      -2.24627000      -3.24660683      -5.25809002      -2.19512272
C       15.99434520      10.18798000       9.22415670       0.00000000      -0.21155000       2.16299000       0.42283000      -0.07022271       2.10686970       0.42658767
C       15.97478716      10.03704000      10.64972310       0.00000000       1.37852000      -1.48552000      -0.63076000       1.43972039      -1.58162713      -0.65943384
C       14.73591613       9.91646000      11.33558310       0.00000000       2.45396000       0.53777000       0.55082000       2.52912569       0.42561889       0.63303959
C       14.76124173      10.07080000      12.75343890       0.00000000      -1.91090000      -0.27070000       1.76453000      -1.97167492      -0.46170151       1.79061508
C       15.99076415       9.88476000      13.49342220       0.00000000      -1.78057000       2.86444000      -1.96860000      -2.08704233       2.81647611      -1.98888707
C       15.98451453       9.85398000      14.88043560       0.00000000       0.39255000       1.91754000       2.83298000       0.31288522       1.98895836       2.88260651
C       14.74268225      10.11078000      15.64114380       0.00000000      -0.09027000      -2.02810000      -0.33765000      -0.08452222      -1.92921281      -0.55904365
C       14.76394473       9.96474000      17.04647520       0.00000000      -1.21678000       5.44197000       0.37724000      -0.85220397       5.37647915       0.49101394
C       15.97912574      10.13646000      17.76224040       0.00000000      -1.57821000      -0.32153000       0.95763000      -1.46280313      -0.26565558       0.60461724
C       16.00744702      10.01862000      19.15321560       0.00000000      -1.18801000       1.71385000       1.38577000      -0.87861258       1.47450554       1.35771632
C       14.75089456       9.99662000      19.89950370       0.00000000       1.12348000      -5.63336000      -1.49450000       0.89621270      -5.48159361      -1.09592271
C       12.28797600       9.89628000      21.27786930       0.00000000      -2.09235000      -0.93239000       1.10932000      -2.06989241      -0.82407057       1.10073173
C       13.50339803      10.11626000       0.73712910       0.00000000       0.87236000      -3.21948000      -1.66675000       0.65632343      -3.18283224      -1.72125220
C       13.52588289      10.14008000       2.13724200       0.00000000       2.23604000      -2.65549000       2.23374000       2.33003736      -2.38579869       2.00982428
C       12.28465319       9.85722000       2.87077140       0.00000000       0.77722000       3.35667000      -2.41605000       0.63014138       3.22008276      -2.45405483
C       12.29684254      10.03130000       4.20760200       0.00000000      -3.32619000      -1.34064000       6.54546000      -3.08039856      -1.51930976       6.56316566
C       13.54375371      10.26174000       4.96402890       0.00000000       0.39915000       1.09365000      -0.63086000       0.12764254       1.25612009      -0.82301056
C       13.52915404       9.77024000       6.38561220       0.00000000       0.68754000      -0.41780000       0.21674000       0.52012932      -0.49631032       0.03924721
C       12.30471052      10.02956000       7.08964110       0.00000000       0.13954000      -0.17507000       0.71386000       0.20950371      -0.30240715       0.53497994
C       12.28139926      10.10996000       8.53831800       0.00000000       1.93517000       2.42514000      -0.60772000       1.61467564       2.63071871      -0.15846375
C       13.53388860       9.75940000       9.24025950       0.00000000       1.57920000       4.03703000      -2.79827000       1.55402553       3.92096949      -2.66668510
C       13.52925734      10.13938000      10.63596330       0.00000000      -1.86596000      -4.09995000      -1.72171000      -2.04797339      -4.07697678      -1.30045223
C       12.29100611       9.86216000      11.33072670       0.00000000       1.77148000       4.72369000       1.51122000       1.74058890       4.91916847       1.35552227
C       12.30348814      10.33522000      12.78010650       0.00000000       1.38645000      -1.83701000       0.21151000       2.00863218      -1.81144452       0.00932252
C       13.52262896       9.97170000      13.48157940       0.00000000      -0.42808000      -0.60254000      -0.68840000      -0.43960968      -0.27448970      -0.72423005
C       13.52045967       9.70396000      14.90678370       0.00000000      -1.66191000      -0.39766000      -0.02971000      -1.34764147      -0.19361436      -0.35021263
C       12.30564021      10.25772000      15.62348610       0.00000000       2.30054000       0.98284000       0.85541000       2.43948317       1.11316502       0.71732599
C       12.30271339       9.99852000      17.00161740       0.00000000       0.15463000      -1.09360000       3.01795000      -0.13112456      -0.83008111       2.79362059
C       13.52679537       9.75120000      17.79925980       0.00000000       0.64291000      -1.79684000      -4.20610000       0.64058560      -1.31319261      -4.03746891
C       13.52347257      10.14604000      19.16929710       0.00000000      -1.83509000       3.25619000       2.26244000      -1.79893351       3.08836985       2.42383218
C       12.27418551       9.41286000      19.89503070       0.00000000      -1.18756000       6.09580000      -2.73076000      -1.66331136       6.08147621      -2.99237776
C        9.85386077      10.11182000       0.02805210       0.00000000       0.79118000      -2.07468000       1.55884000       1.29610431      -1.84288490       1.20049870
C       11.03977358      10.01174000       0.75380700       0.00000000       2.50738000       0.12169000      -2.07889000       1.93831539       0.31978875      -2.29773307
C       11.04798589       9.83868000       2.13200220       0.00000000       2.85154000      -2.93758000      -0.11431000       2.95812750      -2.65811777      -0.31050432
C        9.82798425       9.83898000       2.84137740       0.00000000      -2.75031000       4.32272000      -2.14080000      -2.92822790       4.49301195      -1.95336294
C        9.81681068       9.90948000       4.24161810       0.00000000       3.84566000      -3.46046000       3.09964000       3.87079191      -2.73032618       3.00049353
C       11.09880925      10.03434000       4.96356030       0.00000000       2.16502000       2.33974000      -3.10134000       2.00725865       2.04828715      -2.95151949
C       11.08407186       9.83538000       6.39455820       0.00000000      -0.25702000      -1.70387000      -0.61623000      -0.52980554      -1.70400882      -0.41701797
C        9.86419073      10.21786000       7.10369910       0.00000000      -1.06263000       5.52371000      -0.78080000      -1.01859725       5.72422075      -0.83892369
C        9.84323814       9.86564000       8.49527070       0.00000000      -1.35044000      -0.33319000       1.80374000      -1.26285934      -0.50334847       1.73505557
C       11.04139194      10.15044000       9.23593560       0.00000000      -0.26208000      -4.65077000      -1.39897000      -0.74012256      -5.26832104      -1.61204982
C       11.07281221      10.12692000      10.63641060       0.00000000      -0.25517000      -0.34288000      -0.69514000      -0.21923411      -0.35278344      -0.69031900
C        9.84268721       9.85586000      11.34572190       0.00000000       0.51249000       3.43591000       1.10440000       0.53366983       3.52021360       1.03594947
C        9.87536429      10.13948000      12.75616530       0.00000000      -1.03131000      -5.50681000       1.21023000      -0.98305035      -4.95858669       0.95124608
C       11.08093844       9.83050000      13.50573360       0.00000000       0.78148000       3.13694000      -0.87176000       0.45381942       3.35764551      -0.99565887
C       11.09097571      10.08358000      14.92927650       0.00000000      -3.44406000      -1.53814000       0.38493000      -3.15182781      -0.92260271       0.23352623
C        9.84630269      10.01644000      15.65792820       0.00000000      -0.31187000      -1.68843000      -1.76624000      -0.62806380      -1.42073250      -1.96826720
C        9.83314922       9.69492000      17.02221450       0.00000000      -0.14256000      -1.34339000       0.34294000      -0.07781371      -1.30427015       0.63496530
C       11.05148086      10.18846000      17.75683020       0.00000000       1.18042000       1.41045000      -1.68397000       1.06422377       1.31498027      -1.50532341
C       11.07334592      10.01654000      19.17025560       0.00000000       4.19495000      -6.71943000       3.51335000       4.45143890      -6.80992365       3.68331885
C        9.86711755       9.89470000      19.93439310       0.00000000       0.52278000       1.33715000      -3.76448000       0.50700718       1.32406831      -3.57539463
C        7.39104551      10.11286000      21.27857220       0.00000000      -1.35669000      -1.02185000       3.66410000      -1.35890222      -0.83737451       3.24021006
C        8.61793379       9.84554000       0.72428520       0.00000000      -0.79127000       3.61502000       0.67697000      -1.03322673       3.86482787       0.71113575
C        8.61776162      10.14854000       2.11306650       0.00000000      -0.97233000      -4.81348000       0.72316000      -1.73338795      -3.88842106       0.74312598
C        7.34824508      10.14108000       2.85711810       0.00000000       3.47000000       2.60446000       0.62325000       4.00529957       2.65827560       0.59877419
C        7.38281598       9.97508000       4.26347190       0.00000000       0.02386000       0.34431000      -0.33668000       0.06785385       0.35992655      -0.37793320
C        8.61600553       9.85232000       4.97308140       0.00000000      -3.68603000       3.86706000       0.00913000      -4.12401485       3.66928387       0.09539127
C        8.60946323      10.08714000       6.39715680       0.00000000      -1.14270000      -1.34577000       1.93726000      -1.13456810      -1.33163452       1.98782885
C        7.38975426      10.02166000       7.12107990       0.00000000      -1.00085000      -0.20889000      -1.97933000      -0.99303150      -0.33392733      -2.40961027
C        7.35098251      10.10124000       8.53030920       0.00000000      -0.78767000      -2.39783000       0.03048000      -0.67884755      -2.48454285       0.29089016
C        8.61857080       9.88030000       9.30705630       0.00000000      -1.09255000       4.28035000      -5.83297000      -1.33011627       4.60134220      -5.65154171
C        8.61970710       9.67272000      10.66908480       0.00000000      -1.76342000      -3.61926000       2.43909000      -1.87409174      -3.73745251       2.49505091
C        7.39156200      10.03370000      11.37517980       0.00000000       0.92991000      -1.33454000       4.15369000       0.85968721      -1.41731286       4.16053820
C        7.36308577       9.97526000      12.77028720       0.00000000       0.72744000      -0.45821000      -4.75438000       0.61460555      -0.63198578      -4.84782267
C        8.60992808      10.16630000      13.45265400       0.00000000      -0.56565000      -3.36173000       1.49405000      -0.76355088      -3.29477620       1.49605525
C        8.62201412       9.82774000      14.90056410       0.00000000       2.86431000       4.51654000       0.00047000       2.66826487       4.23566818      -0.18595117
C        7.40030803       9.79128000      15.59843730       0.00000000       0.10475000      -3.94845000       2.46472000       0.27755004      -4.05717230       2.56610680
C        7.36422207       9.96360000      17.02538820       0.00000000       3.98677000       3.82345000       3.36830000       3.99580526       3.98133016       3.39882088
C        8.61261386      10.01092000      17.73697860       0.00000000      -3.43280000      -1.66053000      -3.23968000      -3.40408111      -1.61459088      -3.23701429
C        8.65117901       9.87268000      19.12948740       0.00000000      -2.70285000       1.94611000       1.65203000      -2.80112362       1.91444933       1.75998890
C        7.38226505      10.08676000      19.89705420       0.00000000       0.23304000       0.05563000      -4.20013000       0.31485069      -0.05578369      -4.19241238
C        4.90318011       9.85770000       0.01009620       0.00000000       1.06605000       0.11325000       1.49773000       1.13987756       0.13695282       1.43390584
C        6.16610270      10.11600000       0.70330470       0.00000000      -1.83232000      -5.45481000       1.44278000      -1.83097124      -5.53742695       1.19609320
C        6.13927926       9.88694000       2.16531540       0.00000000       0.58016000       3.51078000      -3.04032000       0.66017920       3.46198273      -2.95993853
C        4.92712838      10.09478000       2.85835350       0.00000000       0.39088000      -1.30196000      -2.66683000       0.33738947      -1.08718681      -2.35770035
C        4.96147547      10.18064000       4.22960490       0.00000000      -2.37119000       4.29848000       4.50119000      -2.32860112       3.97870684       4.59249306
C        6.13908988       9.81534000       4.95584970       0.00000000       1.21147000      -3.26136000       0.60708000       1.36583686      -3.30672598       0.63927019
C        6.15764936      10.36550000       6.37146900       0.00000000      -0.06141000      -1.49621000       0.89699000       0.14116102      -1.31479537       0.78973728
C        4.91783142      10.01518000       7.07950230       0.00000000       1.88925000       0.67933000       2.67735000       0.95900673       0.75136733       2.68043399
C        4.91397491       9.65504000       8.55265290       0.00000000      -0.59293000       0.25667000      -2.90288000      -0.51507849       0.21779326      -2.73270941
C        6.12018607       9.87120000       9.23261280       0.00000000       1.91060000       0.47780000       1.25288000       2.01546574       0.85344833       1.29921317
C        6.17760338      10.18128000      10.67325960       0.00000000      -2.56042000       2.51646000      -2.60093000      -2.29235268       2.51157355      -2.13170648
C        4.91922597       9.78038000      11.36923710       0.00000000       0.55177000      -1.35501000       0.60836000       0.49578983      -1.24073493       0.22265363
C        4.92299640       9.98800000      12.78140580       0.00000000      -0.73010000       2.26016000      -0.00068000      -0.57356536       2.15257907       0.24455488
C        6.14106979      10.10228000      13.50324150       0.00000000      -0.36738000      -0.33948000      -0.24421000      -0.16081171      -0.44156086      -0.27305448
C        6.18049577       9.82524000      14.95266390       0.00000000      -2.34407000       5.92419000      -2.74766000      -2.58653593       5.59743214      -2.66115856
C        4.87998937       9.88696000      15.63177180       0.00000000       3.25831000       0.15460000      -0.86178000       3.34909987       0.32073832      -0.66245884
C        4.92464919       9.83754000      17.03584650       0.00000000       1.08081000       3.56621000      -0.19336000       1.00561762       3.39471626       0.02077273
C        6.13891771      10.13822000      17.76699030       0.00000000       1.62617000      -1.67645000      -2.49311000       1.66560876      -1.64425325      -2.56961775
C        6.15592770      10.12614000      19.18799850       0.00000000      -0.82311000      -3.27155000       0.88699000      -0.77708495      -3.16027260       1.03082800
C        4.92516569       9.87626000      19.89260250       0.00000000      -0.35194000       2.34094000      -0.56807000      -0.22562861       2.53676081      -0.67882228
C        2.44293011       9.98880000       0.01495260       0.00000000       1.68918000       0.30699000      -1.09744000       1.85892701       0.52561671      -1.07367015
C        3.70147969       9.86958000       0.71235720       0.00000000      -4.18915000       2.91842000       0.34532000      -4.29652596       3.01909900       0.47730973
C        3.71482255      10.10816000       2.14094820       0.00000000      -3.40793000      -0.32748000      -0.43251000      -3.69818902      -0.21235520      -0.40362173
C        2.45546379      10.11564000       2.86197450       0.00000000       0.29748000      -3.47656000       0.20053000       0.13923042      -3.59017205       0.31326199
C        2.47602039       9.89628000       4.28611380       0.00000000      -1.02893000       0.13760000      -1.37685000      -1.01014376       0.30332196      -1.57599938
C        3.68968633      10.16364000       4.96379460       0.00000000       1.71889000      -3.49187000       0.85609000       1.54407120      -3.56260633       0.89845902
C        3.69574657       9.86740000       6.39193830       0.00000000       2.77775000       3.63673000      -1.30201000       2.98167419       3.15992522      -0.91326433
C        2.47142356      10.00364000       7.14184740       0.00000000      -0.96030000      -3.67280000      -1.24790000      -1.17017937      -3.80260038      -1.14479220
C        2.43938350      10.19572000       8.54315310       0.00000000       2.86740000       4.73071000      -0.48674000       2.76034904       4.69694805      -1.03259301
C        3.70509517      10.12248000       9.24255990       0.00000000       0.47739000      -3.18696000       4.60095000       0.59736413      -2.87803173       4.49330807
C        3.68901488       9.98206000      10.65151230       0.00000000      -0.10940000       2.55457000      -4.80943000       0.26209509       2.66947484      -4.76608419
C        2.44597745       9.89950000      11.35705350       0.00000000      -0.63874000       2.65982000      -3.09201000      -0.95728695       2.22305155      -2.96785307
C        2.44299898      10.12358000      12.78826440       0.00000000      -0.52461000      -1.49588000       0.21466000      -0.27840126      -1.64232576       0.44036466
C        3.67799627       9.79356000      13.49487060       0.00000000       2.18636000       0.05777000      -1.77909000       2.05698347       0.15640795      -1.91335630
C        3.69416264      10.11986000      14.90058540       0.00000000       0.11108000      -2.31182000      -0.54383000       0.34067300      -2.50026488      -0.61936808
C        2.46415816       9.86104000      15.59185560       0.00000000       0.08718000       3.16698000       1.55845000       0.07581696       2.94323516       1.64163089
C        2.44515105      10.11574000      17.04621960       0.00000000      -1.31300000      -1.21673000       0.23167000      -1.28111613      -1.19358122       0.54480845
C        3.71878236       9.91716000      17.74679790       0.00000000      -3.14197000       1.86372000      -0.03222000      -2.91791081       1.70260060       0.00804704
C        3.68889437      10.08994000      19.16963790       0.00000000       0.74621000      -2.00081000      -0.05381000       0.81619406      -2.07482743      -0.03281552
C        2.45374213       9.90646000      19.86346410       0.00000000      -0.49053000       2.04145000       3.15291000      -0.26710430       1.86185062       3.39242101
C        0.01038160      10.13066000      21.29782740       0.00000000       1.33173000      -1.40774000      -0.37648000       1.24623322      -1.46324611      -0.31010699
C        1.23778638      10.12380000       0.70198410       0.00000000       0.86303000      -2.98069000       1.03496000       0.81310385      -3.09904742       1.02418399
C        1.23423976       9.88026000       2.13195960       0.00000000      -1.00786000       1.76215000      -0.16664000      -0.91844153       1.48869514      -0.06560922
C       17.20112451       9.89050000       2.84996130       0.00000000       0.55594000       0.91022000       1.29262000       0.45825338       1.05334711       1.19730985
C        0.02902716       9.68918000       4.30306860       0.00000000      -3.05480000      -1.40220000      -1.44572000      -2.90171480      -1.31033063      -1.55219901
C        1.21440626      10.14744000       4.97365650       0.00000000       1.24672000       2.86645000      -0.28109000       1.15809166       2.78808737       0.26672798
C        1.27354523       9.98384000       6.37321560       0.00000000      -2.75258000      -0.10535000       1.85152000      -2.48101759      -0.05744034       1.80826914
C       17.20460226      10.11752000       7.08949200       0.00000000       0.71229000       2.37512000       0.83022000       0.85763931       2.22604799       0.87070429
C       17.20139997      10.00300000       8.52683730       0.00000000       2.30389000      -2.83181000      -0.36292000       2.41749668      -2.84921312      -0.41157207
C        1.26727839       9.71900000       9.21846960       0.00000000      -4.63786000      -0.82049000       1.10949000      -4.80907297      -0.61911863       1.09882367
C        1.21178934      10.00984000      10.62358800       0.00000000       2.33514000       0.52266000      -0.35068000       2.43515182       0.64184678      -0.55050206
C        0.03663689      10.14358000      11.35062090       0.00000000      -2.25582000      -2.52740000      -2.82717000      -2.54762435      -2.14387012      -2.95066285
C       17.18232400       9.87708000      12.77769960       0.00000000       5.06196000       1.62269000       0.19324000       4.99063301       1.91285312       0.16482979
C        1.25450368       9.96812000      13.47802230       0.00000000      -2.13354000       1.59728000       0.41453000      -2.49625373       1.57920265       0.40079483
C        1.22986675       9.86094000      14.90099010       0.00000000       0.46173000       1.96611000      -3.19920000       0.22064006       1.77492452      -3.04875588
C        0.01246481      10.12864000      15.61716000       0.00000000      -0.47037000      -2.10222000      -0.38597000      -0.33149529      -2.18496227      -0.58941722
C        0.00241032       9.86028000      17.05422840       0.00000000       2.64017000       4.67516000      -1.27924000       2.29729724       4.54699802      -1.26547074