14
Lattice="4.919024293495611 0.0 0.0 0.0 20.0 0.0 0.0 0.0 4.26" Properties=species:S:1:pos:R:3:momenta:R:3:forces:R:3 energy=-100.11951446533203 stress="-0.0018813848728314042 -7.57705929572694e-05 7.03267432982102e-05 -7.57705929572694e-05 -7.189558527898043e-05 -3.95354845750262e-06 7.03267432982102e-05 -3.95354845750262e-06 -0.002087795175611973" free_energy=-100.11951446533203 pbc="T F T"
C        2.43502953      10.14891823      -0.00525727       0.21211254       1.33153040      -0.26793659       1.41988850      -1.60497475       0.03398895
C        3.64561770      10.12676071       0.67772913      -0.50241285      -0.24978220       1.42985365       4.08063221       2.13636994       1.22594965
C        3.80179256       9.57684731       2.10710803      -2.48542556      -1.93548267       0.02590013      -4.60801792      -0.87406659       0.04409158
C        2.57023823      10.19785014       2.85408559       2.74072473      -0.50308128       0.43299594      -1.23237801       2.00913334      -1.55948186
C        0.11392924      10.11036605       0.01338009       1.05158544      -0.93454598      -0.61352215      -2.63004637       2.13134503      -2.42180371
C        1.35355789       9.82219267       0.68488489      -1.56082640       2.12164400      -0.49055252      -3.36558580      -1.11529148      -0.50109184
C        1.16267879      10.12619108       2.12748866       0.58615432       1.03336007      -1.18054086       3.97436857       1.93899441       0.07817972
C        0.00691983      10.03574889       2.80039572       1.38783370      -0.41155102       0.42602876       1.18887067      -1.46181130       1.85178828
O        2.04090850      11.36836539       2.34869831       0.84260946      -2.65051614      -0.12095327      -0.07494016      -0.78967905       0.74028850
O        4.37850572      11.33831184       0.46656337       0.88967612      -1.12128045      -0.46483117       0.06750542      -1.44227195      -0.09859762
O        3.47022141       8.17502828       1.99465207      -2.60842368       2.57482764       1.27719189      -0.30078739       0.29666376       0.05576897
H        2.53763149       8.12341558       1.49100044       0.17854232       0.22507736      -0.71691561       0.39849252      -0.92659009       0.81058216
O        1.01332227       7.83096845       0.96161338      -0.63639991       0.44223111       0.73807756       0.67982072       0.56844521       1.11556041
H        1.42349406       7.48320533       0.18533597      -0.09575117       0.07756917      -0.47479536       0.40217781      -0.86626601      -1.37522244
14
Lattice="4.919024293495611 0.0 0.0 0.0 20.0 0.0 0.0 0.0 4.26" Properties=species:S:1:pos:R:3:momenta:R:3:forces:R:3 energy=-101.08654022216797 stress="-0.001008758321404457 -0.0001417502498952672 -0.0003533934650477022 -0.0001417502498952672 0.00035660300636664033 -6.834740634076297e-05 -0.0003533934650477022 -6.834740634076297e-05 -0.000758684822358191" free_energy=-101.08654022216797 pbc="T F T"
C        2.60809247      10.07789035      -0.13426559      -0.83780863       0.34843533       0.51824390      -4.03560400      -1.76350164       2.10247397
C        3.69408052      10.05434088       0.62296848      -1.01509388      -1.29464130       1.45359024       4.48558807       0.45218715       2.39076924
C        3.68567773       9.48096751       2.07540468       1.83673357       3.33379589      -0.20029575      -0.52405167      -0.80504680       0.68617225
C        2.58959661      10.41496429       2.75463254       0.29046103       0.63884912       1.22398326      -0.90402216       0.76010191      -0.92484665
C        0.22101981      10.25651568      -0.05078391       0.44745528       1.22024712       1.02091263      -1.96533513      -0.61832410      -1.84450340
C        1.45984169      10.07837897       0.61215921      -2.18483839       0.26229247      -1.34106852      -2.21740127       0.15231760      -0.24048799
C        1.22795962      10.16163018       2.08353073      -0.24857441      -0.00748833      -0.99786714       2.01430678      -0.11196178      -0.94213754
C        0.11898631       9.82622091       2.76881066      -1.12592359       0.60169983      -1.17998412      -0.19734189       0.74228048       0.45129755
O        2.17007798      11.62313961       2.56152440       0.89856817      -0.30538336       0.13705802       0.91842639      -0.19658244      -0.86794722
O        4.31275693      11.31752074       0.35681220       0.47939436      -1.48069278       0.01037497       1.29331112      -0.25958645       0.56383979
O        3.22448437       8.21667110       2.37914489       2.23885270       0.14164632      -0.40604549       1.00810695       2.21220493      -1.50788617
H        1.83387428       7.71367602       0.86701628       0.60126280      -0.38663416      -0.37307162       0.08208993       0.05342144      -0.58132374
O        0.88117758       7.45899405       0.81570676      -1.20262828      -3.45606765       0.30196693       1.08692598      -0.61206222       1.07007539
H        0.97595258       6.96715971       1.67029454      -0.17786204       0.38394186      -0.16779735      -1.04500031      -0.00545002      -0.35549551
14
Lattice="4.919024293495611 0.0 0.0 0.0 20.0 0.0 0.0 0.0 4.26" Properties=species:S:1:pos:R:3:momenta:R:3:forces:R:3 energy=-101.11507415771484 stress="-0.0007683740113861859 -0.00013936604955233634 -9.589194633008447e-06 -0.00013936604955233634 0.0012425187742337584 -0.0003356756060384214 -9.589194633008447e-06 -0.0003356756060384214 -0.0005708673852495849" free_energy=-101.11507415771484 pbc="T F T"
C        2.41853541       9.99475412      -0.05917973      -1.71786003       0.46459814       1.12996806      -3.69977522       0.02682674      -0.73683625
C        3.53148066      10.31260904       0.64152960       1.04322105      -0.03517876      -0.46467342       1.81730151       0.04787093       1.04970264
C        3.74890177       9.66324735       1.99279821       0.28381930       0.69458410       1.84636444      -0.07929203      -4.10923910       1.63975859
C        2.30162795      10.61373345       2.71991673       0.14404942       1.10090434       0.41030127       3.84339571       1.57227266       3.44885778
C        0.00687807      10.42880052      -0.03901706      -0.43723766       1.66551887      -0.56276498       0.70039427      -1.18483496       1.12126887
C        1.14185817       9.75563859       0.67870968      -1.37741652       0.79012724      -0.26829477       1.79802549       2.54812002      -0.46300954
C        1.15948041      10.00614468       2.12290348       1.11913685       1.25172903       0.12000798      -0.84263366       0.61173338      -1.45361185
C        0.02670116      10.20652921       2.87392756      -0.66685066      -1.32821153      -1.96036941       0.00157014      -0.81942463      -3.92403102
O        2.85850168      11.82880298       2.68338129       1.30368641      -0.26902431       0.72114541      -2.62066197      -2.36861992      -0.84360778
O        4.22609939      11.50890609       0.46762906       1.49900101       0.96757244       0.81194796       0.43800727       0.10080695       0.68132848
O        3.79881953       8.34694694       2.08661693      -0.30649642      -1.96003107      -1.35179382      -1.39212608       3.53944850      -0.49592751
H        0.75575556       5.78128708       1.34927745       0.01346855       0.25446556      -0.18613302      -0.46882540       1.02865779      -0.58191377
O        0.79336871       6.58041389       0.76212021      -0.56211739      -3.64491925       0.50962928       0.83785510      -0.68976623       0.07411917
H       -0.08891992       6.96127940       0.61577941      -0.33840513       0.04786538      -0.75533497      -0.33323541      -0.30385262       0.48390394
14
Lattice="4.919024293495611 0.0 0.0 0.0 20.0 0.0 0.0 0.0 4.26" Properties=species:S:1:pos:R:3:momenta:R:3:forces:R:3 energy=-102.45999908447266 stress="-0.0010216935770586133 1.2094939847884234e-05 0.0006906169001013041 1.2094939847884234e-05 0.0002462110132910311 0.00028628786094486713 0.0006906169001013041 0.00028628786094486713 7.081052899593487e-05" free_energy=-102.45999908447266 pbc="T F T"
C        2.47962388      10.31487604      -0.00169107      -0.30202782       0.03541725       1.12453244      -1.72165608       0.63451588       0.08228910
C        3.74853851      10.21622644       0.63349802       0.61700510      -0.59108375      -1.51125108      -1.50974214      -1.06831884       3.92374372
C        4.01491544       9.32184248       1.89585919      -1.90310103       0.16386354       0.80844554      -2.94181037      -1.45670474       0.01400119
C        2.28630492      11.17319158       3.05248299       0.23318608       2.70755112       1.19508093      -1.11031282      -3.10081172      -0.82295549
C        0.06780634      10.36657870       0.01565079      -2.04070034       0.58296917      -0.69586410       3.12530684      -0.77233773      -2.32728148
C        1.33683343      10.32505645       0.78410151       0.48392254      -1.78800693      -1.15519870      -0.42220488      -0.71471757      -1.11984622
C        1.20622114      10.43011835       2.19166429       1.73827452       0.82914639       0.24999705       0.80989748      -0.05412393       1.18815792
C        0.11100206       9.87547402       2.84415617       1.87757055      -0.91830373       0.85646737       0.49010110       1.32648039      -1.29865670
O        2.86166332      12.12479946       2.61741120      -1.17723218       1.20660820      -0.75278834       0.71390814       1.78125894      -0.11245051
O        4.28901289      11.49331950       0.50545208       0.76224603      -1.13233661      -0.40279759       0.48216507       1.17382669      -0.15347737
O        3.32200917       8.23929871       1.90394317       0.60974163       1.09363565       0.63777896       2.16445422       2.22730255       0.58988255
H        0.00866843       6.50985875       0.69646340      -0.09957773       0.35955148      -0.52459739      -0.00448786      -0.15559494       0.08528955
O        0.51790740       5.67419526       0.70527508      -0.87787889      -2.62405241      -0.23883698      -0.02052440       0.03861702      -0.62224472
H        0.63732594       5.45913032      -0.25178281       0.07856980       0.07504100       0.40903181      -0.05509524       0.14060736       0.57354844
14
Lattice="4.919024293495611 0.0 0.0 0.0 20.0 0.0 0.0 0.0 4.26" Properties=species:S:1:pos:R:3:momenta:R:3:forces:R:3 energy=-102.01158142089844 stress="-0.0015644330997020006 -0.0003709498269017786 0.0003354493237566203 -0.0003709498269017786 -0.0009496298152953386 -0.00022464734502136707 0.0003354493237566203 -0.00022464734502136707 -0.0003691274323500693" free_energy=-102.01158142089844 pbc="T F T"
C        2.49148634      10.47858231      -0.00126985      -0.08729113      -2.35938293       1.82227683       2.81860447       0.38035080      -0.42281166
C        3.87411348      10.41358208       0.67122682      -0.34002154      -1.47450535      -0.64863130      -5.25967741      -2.42150164       1.36942291
C        3.91117588       9.64881412       2.03498492       0.30588770       1.10371851       0.32346368       2.16590714       3.02560806      -2.69396019
C        2.22091558      11.15327329       2.95578202      -1.26468486      -1.14719570       2.12970420       0.94653749       1.77262902      -0.38673243
C        0.15066781      10.15271873      -0.09167693       1.37644868       3.01602248      -0.69674604       1.60463238      -0.14397368      -1.36492884
C        1.39580558      10.10265899       0.64775060       0.60322037       0.82569922       1.66406492       0.61191612      -0.44904342       0.88607770
C        1.36480133      10.40462315       2.06831363       1.08708204       0.66087792      -1.60210073      -1.94553089      -1.94471788       0.39110446
C        0.16972527      10.10765281       2.66646911       0.34832883      -1.45735613      -1.01334687       1.69066644       0.96373701       2.31905985
O        2.40664109      12.35596699       2.69118548      -0.99605688       0.04174196      -1.03845144       0.64373386      -0.43689334       0.46171424
O        4.67296010      11.44018300       0.35770286       0.32183359       1.56199003       0.41133804      -0.63765281       3.07110333      -0.47568798
O        3.52726687       8.61676795       2.46509989      -0.26719727       1.80111651      -0.93252030      -2.64735413      -3.80430555      -0.07891878
H        0.57869957       5.28294800      -0.24462757      -0.26680433      -0.58349247       0.19612889      -0.81599796      -0.38220692       0.40324572
O        0.09108100       4.89769843       0.53562005      -0.81394582      -2.04569074      -1.17794686       0.77581739       0.54932177      -1.00808156
H        0.81039691       4.96818828       1.18007441      -0.00680112       0.05645715       0.56276649       0.04839754      -0.18010864       0.60049611
14
Lattice="4.919024293495611 0.0 0.0 0.0 20.0 0.0 0.0 0.0 4.26" Properties=species:S:1:pos:R:3:momenta:R:3:forces:R:3 energy=-101.48597717285156 stress="-0.000868552306201309 0.0005063242861069739 0.00031210266752168536 0.0005063242861069739 0.0006911319796927273 0.0003448438656050712 0.00031210266752168536 0.0003448438656050712 -0.00022716000967193395" free_energy=-101.48597717285156 pbc="T F T"
C        2.59011622      10.49435823       0.02006822      -0.67790022       0.97330620      -1.17785483       2.58542609      -0.94827741       1.84230721
C        3.86607679      10.58965819       0.82447310      -1.40995406      -0.86514944      -0.06129417      -3.30639505      -2.82502389      -2.25314617
C        3.90216977       9.67834890       1.98304046      -0.02309148       1.88475192       0.00467214       1.12579429      -3.85239148       0.71275020
C        2.47148987      11.05098432       3.01490260       0.43265859       0.90494039       2.25388141       0.20508921       4.31481171      -2.69454503
C        0.20354363      10.61587800      -0.10824922      -0.71786898      -1.05731642      -0.53347385      -0.49185067      -0.98259902       0.95195335
C        1.40568588      10.59329862       0.61502302      -1.88902420       0.88619331      -0.86196736       1.42008066      -2.28096581       4.10893631
C        1.46938200      10.44820204       2.10907735      -0.91114087       2.11946822      -0.14967154      -3.45572805      -0.53039581      -0.27077428
C        0.24754796      10.12223892       2.79916609      -0.47525022      -0.35437033       0.26219973      -0.18100920       0.78558421      -1.31344509
O        2.68322105      12.31667326       2.88657304       1.98373210      -1.10292613      -0.41107950       0.27149791      -1.55984557      -0.66625601
O        4.47202840      11.71390222       0.53734364       2.35510321       0.53223174       2.01636893      -0.14054954       2.91157389      -0.35970259
O        3.39876742       8.44358586       2.00851575       2.52833960      -1.04815693      -0.88010745       1.97458196       4.94729567      -0.06402221
H        0.43003842       3.64802165       0.91256272       0.00903510      -0.32459589       0.66795018       0.60865176       0.23283599       0.85702455
O       -0.20685604       4.08604063       0.35274945      -1.07525590      -1.96168211      -0.87442047      -1.16435909       0.60802674      -1.18867970
H       -0.35240048       5.03635022       0.57460511      -0.12938487      -0.58669365      -0.25520378       0.54877073      -0.82062769       0.33760056
14
Lattice="4.919024293495611 0.0 0.0 0.0 20.0 0.0 0.0 0.0 4.26" Properties=species:S:1:pos:R:3:momenta:R:3:forces:R:3 energy=-101.2204360961914 stress="-0.0006485022604465485 -0.00019369607616681606 0.00048540221177972853 -0.00019369607616681606 0.00021519036090467125 -0.00012840710405725986 0.00048540221177972853 -0.00012840710405725986 -0.0003184473898727447" free_energy=-101.2204360961914 pbc="T F T"
C        2.41081152      10.71448785       0.14693505      -0.61946296       0.97451096      -0.28732504       3.38828087       0.21889976      -1.67155898
C        3.75769890      10.51541667       0.84233157       1.85355328      -0.87419040       0.32598972      -2.48339510       1.63198900      -1.81378651
C        4.00388956       9.73325050       2.10875180      -0.14388997      -1.35464782       0.08532134       1.28842545      -2.84810781      -2.28659940
C        2.45382411      11.47131764       3.07830995       1.72466570      -0.53866803      -2.71126573      -3.76245189      -5.24044800       0.49455857
C        0.02364534      10.54744173      -0.01033606      -0.51958629      -0.43399100      -1.97161776       0.95115054       0.77519006       0.15375414
C        1.25201389      10.45937940       0.76621453      -2.94944809       3.57804550      -0.64955255       2.07152534       0.30581251       0.20605627
C        1.40183843      10.74597843       2.12954641       0.51060041      -0.01847613       1.11881045      -4.25059986      -1.48266840       3.58732414
C        0.14497103      10.36192561       2.79473176       0.42590012      -1.72865663       0.39909022       1.97108150       1.78669441       1.22507489
O        3.03100706      12.32230881       2.54393183      -2.05241457      -0.69661556       1.06419524       2.49818754       4.84864283      -0.65912712
O        4.39317617      11.79788688       0.50338591       1.68610565       1.90377317       1.42594298      -0.22671573      -2.14419961       0.37593499
O        4.00382068       8.44775872       2.06576770       1.81001787       3.25141278       1.85697218      -1.44601488       2.14862347       0.38908386
H       -1.30547317       3.14281280       0.76506834       0.07172812      -0.10531670      -0.56817243       2.38463020       0.25616199      -0.21289290
O       -0.40572622       3.39262904       0.30032157      -1.51882073      -3.50175696       0.65322882      -3.51148129      -0.39152470       0.32412666
H       -0.90418239       3.66459034      -0.51437348      -0.27895161      -0.45542193      -0.74161770       1.12738001       0.13493562      -0.11194837
14
Lattice="4.919024293495611 0.0 0.0 0.0 20.0 0.0 0.0 0.0 4.26" Properties=species:S:1:pos:R:3:momenta:R:3:forces:R:3 energy=-101.59149932861328 stress="-0.00021957483841106296 -0.0004829922690987587 0.0002562565205153078 -0.0004829922690987587 0.0003222482337150723 -0.00018514365365263075 0.0002562565205153078 -0.00018514365365263075 7.375525456154719e-05" free_energy=-101.59149932861328 pbc="T F T"
C        2.70695306      10.47259706       0.09326899      -0.28492453      -0.62501704      -0.66291787      -1.72608781       1.82287610      -2.53357363
C        3.95250115      10.49388545       0.75442597      -1.27983873      -0.34629119      -0.46873742      -0.50287610       2.15419078       0.16197698
C        4.13996534       9.74192368       2.09449355       1.13199378       1.79149898      -0.20794601       1.66985250       5.93063164      -1.68512380
C        2.54883142      11.48529948       3.03545686       1.04968450      -1.91248947       0.47693160      -0.79084325      -1.21517086      -1.09090602
C        0.23918271      10.93718968      -0.04356930       1.49806183      -0.01872399       0.57315995       0.12885621      -1.63185132       1.98471630
C        1.45878513      10.45733173       0.74654542      -0.59302820      -1.25669727       0.66059766       0.87792218       1.87103081      -0.17006931
C        1.47739712      10.73503677       2.13657833      -0.35012997       0.63831665      -0.61201206      -2.40838003      -0.17918673       1.88507605
C        0.16951735      10.58775449       2.84070858       0.19247395      -0.83893599       0.16715719       3.16783857      -0.24347267      -1.35654402
O        2.84957207      12.62253914       2.67885830       0.28220044       2.80163133       0.67363868       0.07488616      -1.42324460       1.32204342
O        4.33989083      11.91736470       0.61599606       1.15837157      -0.00488903      -0.17190192       1.19310319      -1.72869802      -0.08797212
O        3.69439732       8.67462749       2.11578236      -1.78612579       2.16958822      -0.04015359      -1.68427253      -5.35710335       1.57037640
H       -1.57667806       2.27819711      -0.29387370      -0.33633890      -0.04411622      -0.37065999      -0.59813410      -0.75731605      -0.72068191
O       -0.83351435       2.63415614       0.17989903      -0.45301973      -2.56932778      -0.32615248       2.57049108      -0.37321222       0.78960985
H       -0.03481261       1.99389254       0.09935015      -0.22938238       0.21545381       0.30899627      -1.97235703       1.13052845      -0.06892784
14
Lattice="4.919024293495611 0.0 0.0 0.0 20.0 0.0 0.0 0.0 4.26" Properties=species:S:1:pos:R:3:momenta:R:3:forces:R:3 energy=-101.84600830078125 stress="-0.0003901802410837263 0.001118690357543528 0.00011419171642046422 0.001118690357543528 0.000720489420928061 -0.00010542826203163713 0.00011419171642046422 -0.00010542826203163713 -0.00035477385972626507" free_energy=-101.84600830078125 pbc="T F T"
C        2.73460631      10.85301240       0.17304892      -0.17895955       0.56793441       0.39407378      -1.42649293       0.26529264      -2.66700625
C        3.96972578      10.75356082       0.78295577      -1.91208190      -0.59404354      -1.14798434       1.01197410       0.90762401      -0.99522173
C        4.03498959      10.03175060       1.99538499       0.80184755      -0.78764086      -0.49120964      -1.02079749      -3.46839428       3.60091686
C        2.51715611      11.56700596       3.13820009       0.19920959       1.21316221      -0.63353234       0.96546859       2.20231247      -1.86506009
C        0.30732591      10.68938557      -0.06249701       0.03331525       3.00713947       2.04215931       1.25038838      -1.45262790       2.12966371
C        1.56976088      10.42980976       0.70154068       1.89918995      -1.48992396       2.32073521      -0.64259756       1.43791568       2.77165842
C        1.49535056      10.75711864       2.17016158       0.75553795       1.20734755       1.08831917      -1.26664472      -0.20930706       1.03772688
C        0.30645689      10.40572941       2.84503460       1.18697428       0.19719210       1.06388030       0.89025897      -0.29784322      -4.63227415
O        2.95504674      12.74976369       2.90990886      -0.84768602       0.77013810      -2.58554386      -1.62600768      -3.54358053       0.20417252
O        4.83943983      11.90155493       0.23390667       0.47756782      -0.56600338      -1.19274188      -1.16225064       1.42090595       1.69229114
O        3.27953682       9.00621496       2.34393877      -1.29560838      -0.89058602      -0.43205549       3.02670002       2.73770332      -1.27686787
H       -0.48526939       2.25283834      -0.52844252      -0.03146724      -0.25221334       0.56820766      -1.35714972      -0.96334845       1.17732787
O       -1.22708183       1.80827275       0.01959115      -1.36823845      -2.04485808      -1.23160688       0.68155837       1.61002851      -1.85530472
H       -0.78423467       1.22869849       0.63050760       0.28039647      -0.33764408       0.23729848       0.67559123      -0.64668012       0.67797673
14
Lattice="4.919024293495611 0.0 0.0 0.0 20.0 0.0 0.0 0.0 4.26" Properties=species:S:1:pos:R:3:momenta:R:3:forces:R:3 energy=-102.24213409423828 stress="-0.0008241460891440511 -0.0004913886659778655 0.00010487872350495309 -0.0004913886659778655 -0.00028453615959733725 -0.0002792174054775387 0.00010487872350495309 -0.0002792174054775387 -0.0001991473400266841" free_energy=-102.24213409423828 pbc="T F T"
C        2.68601917      11.12641638       0.06835090      -1.01558540       0.32412133      -0.97475489       1.97303987      -1.50171757       0.43151262
C        3.97491594      10.90632672       0.82564408      -0.25960960       0.57502663      -3.74379107      -0.98753875      -1.55899882       0.05980604
C        4.15144333       9.95007358       2.13554937       0.32196094      -1.45419135       0.28394225       1.28371561       0.76564360      -1.10577559
C        2.51087421      11.62813485       2.95276683       1.58581537       0.17097295      -0.88824227       1.04618251       0.88174379       1.43954301
C        0.37807633      10.86138518       0.11435649      -2.22732676       0.42528282       0.72816176      -0.95492810       0.10908107      -2.08972549
C        1.61255552      10.86313961       0.81071473       0.79190796      -2.11197031      -0.39537267      -0.86827850      -0.60224724      -1.74142575
C        1.58723067      10.90180241       2.18936572       0.23178473      -0.60907127       0.77968398      -2.23293447      -2.26249146       1.68549311
C        0.43793219      10.53806149       2.85957660       0.44532423       3.19766857       0.96259788      -1.42889261       0.43733752       1.89288330
O        2.79578539      12.73670276       2.54305238       0.73204959       0.07308592       2.58044447       1.26719773       1.93047261       0.16062260
O        4.56722208      12.08169695       0.71158761      -1.02006530       1.01805880       1.68611922       1.17822289       0.71744156      -0.62814438
O        3.79231385       8.77692957       2.21990250       1.48188768       0.90530036      -0.61216542      -0.27578527       1.08373499      -0.10478951
H       -1.47538894       1.76091163       0.37115105       0.04218871       0.22390165       0.16680315       0.35136694       1.49482262       0.83588582
O       -1.44761714       0.97398803      -0.15029510      -1.20422305      -2.57046680      -0.06998285      -2.78413248      -2.12052321       0.02264813
H       -2.39421406       0.60272978       0.10502505       0.09388839      -0.16771808      -0.50344417       2.43276548       0.62570065      -0.85853410
14
Lattice="4.919024293495611 0.0 0.0 0.0 20.0 0.0 0.0 0.0 4.26" Properties=species:S:1:pos:R:3:momenta:R:3:forces:R:3 energy=-100.79132080078125 stress="-0.001625496195629239 -0.0001766601635608822 0.00013231158663984388 -0.0001766601635608822 -0.0009207972907461226 0.00023953824711497873 0.00013231158663984388 0.00023953824711497873 -0.0008894996135495603" free_energy=-100.79132080078125 pbc="T F T"
C        2.60730547      10.71275693      -0.02422806      -0.41476901       0.12434911       1.67991711       3.70284104       0.01566157       4.58656454
C        4.00739643      11.00683999       0.70723289       0.86805513      -0.54447191       1.31315223      -5.26995087      -2.76075172       2.70285320
C        4.24809831      10.15706550       2.15602234       0.79308038       0.52473621      -1.57794678       0.31729704       3.09298420      -3.19939542
C        2.57883427      11.51504250       3.09413653       0.83065415      -1.21043134      -2.62949696      -1.19239616       1.09245515      -1.06896377
C        0.30244201      11.01380870       0.08606691       0.54990044      -0.17434032       1.04485427       2.08886790       0.49839476      -3.04996395
C        1.53469674      10.93808972       0.84889534       0.42856716       1.69628377       2.24146817       0.18063273      -0.81133330      -1.88328528
C        1.42973055      11.31927542       2.19268453      -1.58130348       1.12394787       0.42535317       0.60870147      -1.60652208      -0.14942238
C        0.32133455      10.93689615       2.83511898      -0.45204881      -0.24773167      -1.52532064      -0.12411690      -0.28826091       1.85001755
O        3.08453178      12.61294560       3.06381191       0.15301483       1.33050513      -0.05975223       0.45564026       3.04769754      -1.89325809
O        4.56922613      12.24805504       0.44791497       0.36847079       0.11529569      -0.88054091       0.24157979       0.16487610       1.86512375
O        4.10150951       8.98118400       2.14817608      -0.32528546       0.12967755       0.43211192      -1.00909519      -2.44519973       0.23973019
H       -2.40660480       0.60587474       0.48008746      -0.01770546      -0.35242072      -0.44048469       1.07415926      -0.47974026      -2.12737989
O       -1.79100471       0.18442212      -0.22292281      -1.33676305      -2.69705146       0.22962685      -0.37806559      -0.97729778       4.05491495
H       -1.85067981       0.54799375      -1.07356038       0.13612996       0.18165387      -0.25294175      -0.69609356       1.45703793      -1.92753530
14
Lattice="4.919024293495611 0.0 0.0 0.0 20.0 0.0 0.0 0.0 4.26" Properties=species:S:1:pos:R:3:momenta:R:3:forces:R:3 energy=-101.65524291992188 stress="-0.000603934342507273 0.00019341829465702176 -3.2683670724509284e-05 0.00019341829465702176 0.001373197534121573 -0.0005997525877319276 -3.2683670724509284e-05 -0.0005997525877319276 0.0005841638776473701" free_energy=-101.65524291992188 pbc="T F T"
C        2.79189375      11.22871264       0.03735336      -0.66720322       1.00542755      -1.90817903      -1.41528499      -0.59519309       0.46523523
C        4.02468461      11.02245130       0.83750808       0.13712784      -0.19569627       1.22090043      -0.66022629      -2.07123184      -0.48405564
C        4.26098234      10.15068583       2.03478152       0.45262664       1.68579947      -0.04708851      -0.50884557      -3.62028909       3.34689522
C        2.57080550      11.97462421       2.88898967       2.03444191      -0.02499529      -0.56894978       2.74726892       2.41264963       2.16874504
C        0.44102629      11.11071261       0.12048084       1.71303165      -0.09417795      -0.33800195      -0.73692161      -0.72868985      -0.52380782
C        1.66252749      10.93643160       0.79422811      -1.29566885      -0.56944706       0.64967014       0.85541415       0.76509780       0.91042638
C        1.64177439      11.00853633       2.31760493      -1.15923515       0.51048582       0.46566597       0.06387660       1.13283432      -2.83378410